# vtk DataFile Version 3.0
file is written by INMOST
ASCII
DATASET UNSTRUCTURED_GRID
POINTS 1199 double
2.87089 1.61013 0 
3.36203 1.28101 0 
3.85316 1.53924 0 
3.99578 1.44304 0 
3.99156 1.1519 0 
4.07595 0.949367 0 
3.88608 0.759494 0 
4.15612 0.683544 0 
4.66245 0.654008 0 
4.80591 0.468354 0 
4.78903 0.248945 0 
5.11814 0.0253165 0 
5.66245 0.345992 0 
5.69198 0.696203 0 
5.92827 0.734177 0 
6.2827 0.729958 0 
6.38397 1.39241 0 
6.25738 1.49367 0 
6.59072 2.05063 0 
6.48945 2.45992 0 
6.71308 2.67932 0 
7.1308 3.48101 0 
7.36287 3.70464 0 
7.59494 3.63713 0 
7.82278 3.57806 0 
7.86076 3.80591 0 
8.21097 3.92405 0 
8.35443 3.83966 0 
8.36709 4.1519 0 
8.76371 4.24051 0 
8.77215 4.11392 0 
9.11392 4.08017 0 
9.16878 3.91139 0 
9.41772 3.88186 0 
9.53165 4.03797 0 
9.5865 4.29958 0 
9.87342 4.9789 0 
10.1603 5.05485 0 
10.0759 5.22363 0 
10.1392 5.93671 0 
9.46414 6.16456 0 
9.23207 6.49789 0 
9.5654 6.48523 0 
9.44726 6.85232 0 
8.75949 7.20675 0 
8.48945 7.92827 0 
8.2827 8.24473 0 
7.44304 8.32911 0 
7.32911 8.81013 0 
7.66667 9.06329 0 
7.19831 9.29958 0 
7.21941 9.55274 0 
6.78059 9.51899 0 
6.66667 9.08439 0 
6.47257 8.70464 0 
6.76371 8.43882 0 
6.18143 8.14768 0 
5.62447 7.75105 0 
5.68354 7.57806 0 
5.2827 7.5443 0 
5.12658 7.96203 0 
4.75949 7.89873 0 
4.67932 7.61181 0 
4.0211 7.46835 0 
3.88186 6.827 0 
3.64557 6.29536 0 
3.57806 6.1097 0 
3.32068 6.24895 0 
3.21519 6.00844 0 
2.93249 6.00422 0 
2.90717 5.81013 0 
2.46414 5.89873 0 
2.21941 6.29958 0 
1.91561 6.30802 0 
1.30802 6.06751 0 
0.966245 5.91139 0 
0.776371 6 0 
0.35443 6.0211 0 
0.164557 5.68776 0 
0.240506 5.21097 0 
0.261603 4.91139 0 
0.455696 4.77215 0 
0.021097 3.46414 0 
0.400844 2.98734 0 
0.308017 2.93249 0 
0.476793 2.63291 0 
0.413502 2.49367 0 
0.759494 2.42616 0 
0.738397 2.06329 0 
0.624473 1.74262 0 
1.00422 1.64557 0 
1.23629 1.96624 0 
1.67932 2.03376 0 
3.6793 2.7468 0 
0.238397 4.11814 0 
2.27511 1.82194 0 
5.46119 7.29519 0 
2.64582 5.58529 0 
2.89374 5.47026 0 
2.74653 5.26556 0 
3.00621 5.16638 0 
2.80813 4.97417 0 
3.05351 4.96097 0 
2.92398 4.76833 0 
3.12708 4.67416 0 
2.96613 4.53533 0 
3.16778 4.47137 0 
3.29313 4.6298 0 
3.34795 4.47219 0 
3.45346 4.59944 0 
3.50915 4.45013 0 
3.61046 4.56652 0 
3.66477 4.42218 0 
3.76482 4.53538 0 
3.81776 4.39511 0 
3.91808 4.51225 0 
3.96962 4.36698 0 
4.07423 4.48405 0 
3.25222 4.34996 0 
3.87202 4.25311 0 
4.01729 4.22629 0 
3.92327 4.11213 0 
4.06179 4.08866 0 
3.97449 3.97719 0 
4.10641 3.95712 0 
3.81107 6.13394 0 
4.02187 3.85308 0 
4.14958 3.82699 0 
4.24466 3.9342 0 
4.29073 3.8049 0 
4.05897 3.73069 0 
6.98046 3.7846 0 
4.39063 3.9089 0 
3.94383 3.75464 0 
3.97877 3.64552 0 
3.87366 3.66601 0 
3.90727 3.56426 0 
3.80958 3.5849 0 
4.44249 3.77335 0 
4.54711 3.88075 0 
4.02788 1.65283 0 
4.59731 3.72689 0 
4.70914 3.84697 0 
4.75995 3.68589 0 
4.62629 3.54823 0 
4.87033 3.81763 0 
4.81322 3.97768 0 
4.98607 3.94843 0 
4.92575 4.11463 0 
5.11197 4.0788 0 
5.05373 4.2518 0 
5.24029 4.21788 0 
5.17886 4.39837 0 
5.37005 4.36219 0 
5.3068 4.54856 0 
5.50162 4.51071 0 
5.43717 4.70195 0 
5.63728 4.66166 0 
5.57098 4.85768 0 
5.77655 4.81579 0 
5.70875 5.01558 0 
5.91776 4.97531 0 
5.85564 5.17414 0 
6.06456 5.13845 0 
6.00085 5.34247 0 
6.21576 5.30208 0 
6.15247 5.50925 0 
6.3675 5.47274 0 
5.92323 5.56171 0 
6.29713 5.70766 0 
5.24132 4.7369 0 
4.8069 3.52082 0 
4.69797 3.38557 0 
5.18179 3.88535 0 
4.86075 3.36019 0 
4.74512 3.22362 0 
8.52967 4.39238 0 
2.72752 4.56539 0 
4.91698 3.19027 0 
4.79344 3.06989 0 
4.63363 3.09717 0 
4.67858 2.95467 0 
4.53238 2.98287 0 
4.57264 2.84554 0 
4.72677 2.79658 0 
4.41574 2.8822 0 
4.46852 2.74566 0 
4.33936 2.76572 0 
3.85107 1.78074 0 
5.56588 4.3213 0 
4.02061 4.63904 0 
3.77417 3.67569 0 
3.71374 3.598 0 
3.74697 3.51403 0 
3.65832 3.52957 0 
3.68863 3.44393 0 
3.59541 3.46182 0 
3.63351 3.60059 0 
4.3813 2.64318 0 
4.26072 2.67441 0 
4.22276 2.78385 0 
4.15615 2.7073 0 
4.12772 2.79636 0 
6.44044 5.25417 0 
6.59485 5.42889 0 
4.06936 2.73415 0 
4.04508 2.8074 0 
4.0908 2.86913 0 
4.00646 2.87486 0 
4.06091 2.94072 0 
4.00838 3.54309 0 
3.98635 2.95046 0 
4.15587 1.52087 0 
4.20185 1.68274 0 
4.31439 1.56803 0 
4.35847 1.72942 0 
4.47781 1.61399 0 
3.99164 2.75085 0 
4.01455 2.68272 0 
6.67063 5.20524 0 
6.82955 5.38524 0 
6.90098 5.16619 0 
7.06812 5.33911 0 
6.97445 5.58077 0 
7.24075 5.5213 0 
7.13495 5.78742 0 
4.52396 1.77863 0 
4.64842 1.65221 0 
4.69718 1.82973 0 
3.94494 2.69698 0 
3.96339 2.63479 0 
7.42874 5.71932 0 
3.93819 2.89817 0 
3.91815 2.95846 0 
3.87294 2.90607 0 
3.85613 2.96242 0 
3.89281 3.01775 0 
3.8328 3.01635 0 
3.80048 2.97099 0 
3.775 3.02681 0 
3.7426 2.97221 0 
3.71973 3.01919 0 
3.69301 2.97712 0 
3.6686 3.02525 0 
3.64024 2.97595 0 
3.6098 3.03374 0 
3.5758 2.97439 0 
3.70859 2.93717 0 
1.26324 5.75144 0 
3.89743 2.64985 0 
3.91532 2.58748 0 
3.85281 2.60539 0 
3.86799 2.53851 0 
3.80851 2.56028 0 
3.93212 2.53073 0 
3.54423 4.71516 0 
3.86325 3.07604 0 
5.98548 4.7791 0 
4.82107 1.68498 0 
4.87883 1.88325 0 
7.27756 3.95759 0 
4.18937 4.60458 0 
4.12333 4.77757 0 
3.69415 3.07325 0 
3.81782 2.48875 0 
3.74782 2.51934 0 
4.29374 2.55592 0 
7.13505 5.08623 0 
3.71653 5.91614 0 
3.95864 5.93191 0 
9.08522 6.14821 0 
2.23312 2.35906 0 
6.38399 2.78058 0 
4.30137 4.74182 0 
4.23536 4.92187 0 
6.15496 2.53774 0 
6.74266 5.01214 0 
2.81119 4.3496 0 
2.55206 4.36316 0 
2.69137 4.10713 0 
5.02055 1.74106 0 
5.07204 1.94064 0 
3.83759 2.66592 0 
2.37098 4.14575 0 
2.25683 4.42828 0 
4.42277 2.51681 0 
4.48387 3.12444 0 
3.78417 4.14443 0 
4.25612 1.81219 0 
7.33429 5.9998 0 
2.48442 3.87822 0 
2.16911 3.91129 0 
4.43147 4.88198 0 
4.36041 5.07217 0 
4.9572 1.53192 0 
3.94108 3.46783 0 
4.03762 3.44659 0 
4.15674 5.11587 0 
5.03864 3.32646 0 
5.09738 3.14429 0 
5.23323 3.30344 0 
4.03407 3.016 0 
4.56474 5.03144 0 
4.48943 5.22549 0 
4.70338 5.18865 0 
4.62327 5.39879 0 
4.84132 5.35691 0 
4.76558 5.56665 0 
7.02657 6.06831 0 
7.23997 6.30628 0 
6.92523 6.36294 0 
7.63276 5.94707 0 
7.72362 5.64705 0 
4.49503 4.02952 0 
7.13944 6.61618 0 
6.81723 6.67513 0 
4.98416 5.52676 0 
4.90967 5.73627 0 
2.76581 3.83102 0 
2.59897 3.61977 0 
5.17332 1.59058 0 
5.29263 3.09681 0 
5.44476 3.26839 0 
5.10728 1.37947 0 
7.4438 6.54544 0 
4.43104 1.43188 0 
4.30389 2.41864 0 
4.93182 2.07164 0 
5.12465 2.14431 0 
5.28167 2.00271 0 
3.6297 3.3726 0 
3.5249 3.3886 0 
3.72174 3.36018 0 
5.12759 5.69681 0 
5.05407 5.90645 0 
4.83664 5.94483 0 
4.98043 6.12003 0 
5.20175 6.07572 0 
5.13056 6.29269 0 
5.35204 6.24379 0 
4.06813 6.16894 0 
4.89283 6.33679 0 
5.05722 6.52802 0 
4.8697 4.28463 0 
2.37097 5.32327 0 
3.20654 5.11253 0 
9.44761 4.84108 0 
3.97612 3.37678 0 
4.06802 3.35151 0 
4.13944 3.42616 0 
4.11592 3.00473 0 
7.03316 6.93182 0 
6.70629 6.98595 0 
6.50609 6.74024 0 
5.33559 2.21608 0 
5.49592 2.0704 0 
5.32792 1.43534 0 
7.97949 4.06328 0 
4.89088 0.692269 0 
7.94031 5.87983 0 
8.02496 5.57221 0 
0.733883 4.29678 0 
2.86262 3.5965 0 
2.72323 3.38853 0 
2.44731 3.39321 0 
3.00859 3.78847 0 
6.39805 7.02882 0 
6.21316 6.80861 0 
4.46106 2.38163 0 
0.785593 5.78582 0 
4.63072 4.83912 0 
4.03496 2.59662 0 
4.37116 4.56095 0 
5.50332 5.05351 0 
6.29944 6.53353 0 
2.98703 3.36174 0 
2.83721 3.17097 0 
3.05521 3.1319 0 
2.90222 2.95331 0 
5.16896 2.36543 0 
5.38483 2.43915 0 
1.63969 2.44191 0 
3.84293 5.71438 0 
3.61311 5.70626 0 
3.73294 5.51172 0 
4.16879 3.32303 0 
4.25378 3.39603 0 
4.74556 0.868976 0 
5.51005 3.04198 0 
5.67148 3.21243 0 
5.59044 3.44224 0 
5.83173 3.39638 0 
5.75391 3.62569 0 
5.98797 3.58184 0 
5.90857 3.80512 0 
6.13941 3.7631 0 
6.06063 3.98167 0 
6.28802 3.94175 0 
6.36842 3.70471 0 
6.20885 4.1573 0 
6.43663 4.11801 0 
6.35706 4.33291 0 
6.58513 4.29331 0 
5.79324 0.922504 0 
3.99874 3.29237 0 
3.16268 2.96835 0 
3.02068 2.77309 0 
3.24396 2.70806 0 
5.423 6.02835 0 
5.57899 6.19524 0 
5.50778 6.41624 0 
6.91859 7.25195 0 
7.27086 7.19397 0 
3.66957 3.28988 0 
3.75225 3.28286 0 
7.80711 5.34917 0 
8.10144 5.27201 0 
7.88205 5.06147 0 
8.32816 5.49031 0 
4.35594 2.28166 0 
4.21781 2.30955 0 
5.5434 0.870991 0 
9.29482 5.8492 0 
3.89635 2.85502 0 
3.84546 2.85875 0 
3.85965 2.80918 0 
3.81502 2.82592 0 
8.40412 5.18351 0 
2.65738 3.0037 0 
3.80149 2.86263 0 
3.77381 2.83324 0 
3.78699 2.80182 0 
3.75765 2.80561 0 
3.76588 2.78139 0 
3.74101 2.78632 0 
3.74698 2.76494 0 
3.73386 2.80717 0 
3.72068 2.79222 0 
3.71414 2.80926 0 
3.70287 2.79295 0 
3.69506 2.81377 0 
3.71159 2.77976 0 
3.69166 2.78503 0 
3.69961 2.77035 0 
3.72482 2.82646 0 
3.77147 2.7584 0 
3.75374 2.74327 0 
3.73427 2.74846 0 
3.73677 2.72931 0 
3.72608 2.57823 0 
3.66671 2.5445 0 
3.67651 2.43964 0 
3.57726 2.48265 0 
3.58438 2.35444 0 
3.10802 2.54378 0 
3.73112 2.31679 0 
3.60531 2.1926 0 
3.64141 2.61445 0 
5.12354 2.92685 0 
4.54459 5.6067 0 
3.23999 3.12066 0 
4.16081 4.19602 0 
4.50008 2.24095 0 
4.61318 2.34964 0 
6.1147 7.0666 0 
3.94981 4.79992 0 
3.77682 2.7337 0 
3.7986 2.75415 0 
3.53774 3.04197 0 
3.61285 2.91712 0 
3.53903 2.91103 0 
3.59016 2.84292 0 
5.95717 6.86564 0 
2.84383 2.58209 0 
3.49003 3.49423 0 
3.40636 3.41147 0 
3.37039 3.53374 0 
3.43405 3.30421 0 
4.91589 5.14873 0 
4.0847 3.08523 0 
4.1761 3.07531 0 
4.96874 0.911823 0 
4.80983 6.56951 0 
4.98409 6.77909 0 
5.20231 5.48819 0 
3.4299 2.24546 0 
3.47078 2.04426 0 
3.21431 2.12682 0 
1.68928 5.8753 0 
3.57709 3.10506 0 
5.67891 3.84633 0 
3.56263 4.2893 0 
7.82319 7.89215 0 
3.50842 5.50223 0 
3.62718 5.31344 0 
5.73271 6.36193 0 
5.80913 6.14331 0 
4.25718 2.18456 0 
4.12641 2.22335 0 
3.76345 2.86924 0 
4.8927 1.32854 0 
4.19928 2.98649 0 
3.96081 5.51533 0 
6.15559 1.9161 0 
8.6325 5.39144 0 
8.71175 5.08681 0 
6.72336 6.12523 0 
6.50774 4.50938 0 
6.7369 4.46962 0 
3.76355 2.15253 0 
3.50385 2.84035 0 
3.54772 2.7754 0 
3.45374 2.91502 0 
5.11582 0.725104 0 
4.21627 3.50712 0 
4.33057 3.48731 0 
3.70762 3.2167 0 
3.78342 3.2106 0 
6.82011 4.25243 0 
6.97114 4.43022 0 
6.0733 3.35436 0 
5.15669 3.49262 0 
5.75439 2.96556 0 
[...]
CELL_DATA 2301
SCALARS Vector_from_cell_center_to_Serpukhov double 3
LOOKUP_TABLE default
106.094 -11.2498 0 
103.007 -13.8084 0 
100.118 -10.0482 0 
104.116 -9.93718 0 
107.721 -11.8179 0 
105.726 -9.20421 0 
104.811 -9.44849 0 
104.121 -10.042 0 
105.817 -8.90963 0 
102.823 -9.46964 0 
108.288 -12.0423 0 
105.191 -9.42544 0 
106.549 -8.93092 0 
105.758 -8.92825 0 
105.632 -9.01661 0 
99.8093 -11.0598 0 
105.552 -8.83466 0 
108.091 -11.7273 0 
102.176 -10.76 0 
106.154 -9.07066 0 
99.9404 -10.2296 0 
104.812 -12.6005 0 
104.037 -10.1387 0 
105.528 -8.83995 0 
108.012 -11.8174 0 
105.305 -8.5839 0 
100.949 -13.6101 0 
101.734 -9.87591 0 
100.023 -10.3091 0 
106.895 -11.2704 0 
106.337 -11.1775 0 
104.436 -9.02179 0 
105.718 -8.86027 0 
108.907 -8.6724 0 
104.398 -8.92155 0 
104.753 -9.38831 0 
104.131 -13.4586 0 
103.817 -6.64677 0 
106.165 -11.3332 0 
105.742 -8.85882 0 
105.14 -8.05593 0 
102.455 -11.8326 0 
105.603 -10 0 
105.025 -13.5286 0 
106.016 -9.04949 0 
106.23 -10.6893 0 
104.588 -7.66021 0 
104.345 -9.66378 0 
101.159 -13.8088 0 
102.738 -11.784 0 
102.808 -11.8933 0 
105.715 -8.88587 0 
107.184 -9.40007 0 
105.671 -8.88867 0 
103.934 -10.1467 0 
103.421 -8.50134 0 
105.469 -8.54656 0 
107.031 -11.614 0 
103.173 -9.39152 0 
100.219 -10.1143 0 
105.734 -8.85423 0 
101.667 -9.77126 0 
108.982 -11.422 0 
105.57 -9.21055 0 
102.963 -12.6633 0 
101.871 -14.1172 0 
104.691 -7.70031 0 
102.448 -15.4158 0 
107.069 -9.29464 0 
105.238 -10.3673 0 
104.424 -9.72252 0 
105.514 -9.30521 0 
104.363 -7.10157 0 
105.077 -10.2253 0 
102.125 -14.1285 0 
105.653 -8.91112 0 
103.189 -9.54028 0 
105.507 -8.8176 0 
104.901 -9.65129 0 
103.97 -13.5172 0 
104.87 -9.57442 0 
105.625 -9.62525 0 
105.748 -8.86072 0 
103.78 -10.3059 0 
105.798 -8.86035 0 
105.366 -7.63648 0 
105.269 -12.6912 0 
105.594 -9.18888 0 
105.156 -7.97632 0 
108.863 -11.0477 0 
104.799 -12.7773 0 
105.629 -9.04135 0 
102.262 -14.2592 0 
105.017 -9.19569 0 
99.9086 -11.4707 0 
105.9 -9.3199 0 
105.755 -9.19986 0 
99.9005 -11.3024 0 
107.409 -10.1027 0 
105.584 -10.182 0 
104.002 -6.99472 0 
105.31 -7.29491 0 
105.486 -8.88861 0 
106.45 -9.61026 0 
105.096 -10.3041 0 
103.24 -12.2124 0 
105.749 -8.85179 0 
101.567 -10.2248 0 
102.124 -10.4809 0 
105.089 -8.9993 0 
106.349 -9.5492 0 
105.564 -8.73795 0 
106.188 -9.13746 0 
101.079 -10.6828 0 
104.267 -7.19834 0 
104.74 -12.0001 0 
108.813 -8.60348 0 
104.785 -8.20407 0 
108.808 -11.5271 0 
105.657 -10.1649 0 
105.772 -8.82758 0 
105.694 -8.8928 0 
105.208 -10.4477 0 
102.046 -10.7865 0 
102.276 -10.8622 0 
105.749 -8.86869 0 
105.195 -9.0416 0 
106.274 -9.1712 0 
103.96 -13.1344 0 
103.051 -11.9639 0 
101.996 -10.5012 0 
108.74 -9.28141 0 
104.698 -10.8551 0 
105.46 -8.86992 0 
104.08 -9.45738 0 
107.189 -12.1554 0 
105.667 -10.0314 0 
104.483 -7.14226 0 
106.594 -11.7723 0 
104.722 -12.1266 0 
101.457 -10.3028 0 
109.044 -9.68875 0 
105.637 -9.57307 0 
103.298 -8.42752 0 
105.847 -11.0891 0 
105.593 -9.53287 0 
106.339 -10.6578 0 
104.532 -6.44874 0 
106.006 -7.67477 0 
106.47 -11.1314 0 
105.739 -8.85982 0 
104.969 -10.5787 0 
105.898 -9.78092 0 
106.754 -11.8623 0 
102.978 -11.8502 0 
105.814 -8.97566 0 
106.749 -11.154 0 
106.24 -10.4666 0 
105.713 -8.85592 0 
105.782 -8.80889 0 
105.629 -8.93816 0 
104.822 -8.11831 0 
102.79 -12.7105 0 
103.954 -13.2673 0 
105.634 -8.91789 0 
106.67 -9.00779 0 
105.214 -9.36997 0 
105.28 -8.53919 0 
105.656 -8.89383 0 
108.776 -9.43339 0 
105.703 -8.7708 0 
106.323 -9.80111 0 
105.669 -8.80878 0 
104.605 -10.1789 0 
104.122 -7.02372 0 
105.421 -8.65513 0 
106.023 -9.33733 0 
105.527 -9.26347 0 
105.465 -9.31179 0 
105.121 -9.43835 0 
105.922 -7.87503 0 
105.518 -8.78331 0 
102.437 -11.9951 0 
105.846 -10.2064 0 
105.391 -8.86169 0 
105.625 -8.86861 0 
105.698 -8.88265 0 
104.679 -8.67501 0 
105.681 -8.84978 0 
103.483 -6.97397 0 
105.308 -8.8435 0 
105.781 -10.1778 0 
105.711 -9.05973 0 
105.973 -11.2493 0 
104.176 -9.53213 0 
105.69 -8.85657 0 
105.087 -9.17335 0 
105.721 -8.88153 0 
104.761 -13.4541 0 
107.09 -11.1959 0 
106.443 -9.7525 0 
106.574 -10.1938 0 
104.428 -6.30106 0 
103.416 -8.80136 0 
105.79 -9.79712 0 
102.557 -9.98113 0 
105.675 -8.87511 0 
103.891 -10.2844 0 
106.547 -9.83623 0 
107.556 -10.2244 0 
105.148 -13.2926 0 
105.516 -9.01846 0 
104.586 -10.2812 0 
105.056 -9.05469 0 
102.696 -14.7598 0 
105.257 -8.86007 0 
105.571 -9.642 0 
103.467 -8.66296 0 
105.255 -10.6061 0 
105.346 -8.02264 0 
105.074 -10.5558 0 
105.941 -11.1267 0 
105.608 -9.48741 0 
105.213 -8.81941 0 
105.843 -8.8968 0 
101.484 -13.2407 0 
105.115 -7.24742 0 
108.621 -8.76821 0 
105.504 -9.22284 0 
104.67 -10.9663 0 
104.554 -10.4824 0 
104.609 -8.61184 0 
106.106 -9.90002 0 
102.993 -9.32625 0 
105.586 -8.92885 0 
107.485 -8.13384 0 
105.163 -8.99958 0 
105.814 -8.84382 0 
105.684 -10.1028 0 
105.289 -8.94708 0 
105.346 -8.87686 0 
106.608 -8.4832 0 
105.152 -8.83889 0 
105.996 -12.2395 0 
103.002 -12.5339 0 
107.301 -8.24227 0 
105.682 -8.89726 0 
101.844 -13.8396 0 
102.601 -9.82167 0 
100.905 -12.6758 0 
105.896 -11.3308 0 
105.317 -7.94863 0 
105.003 -10.1846 0 
107.673 -11.6729 0 
108.746 -10.9275 0 
105.942 -9.36004 0 
108.689 -11.4574 0 
105.38 -8.64105 0 
109.067 -11.7327 0 
105.854 -10.2974 0 
105.611 -8.85837 0 
106.352 -9.34724 0 
108.657 -9.56638 0 
105.666 -8.75415 0 
105.017 -7.2861 0 
104.508 -7.28117 0 
106.074 -12.0898 0 
105.566 -10.9573 0 
102.031 -11.659 0 
106.182 -9.00868 0 
104.625 -7.31688 0 
103.515 -9.09481 0 
105.553 -8.77295 0 
105.464 -9.20932 0 
103.84 -13.0681 0 
104.957 -9.14221 0 
105.367 -11.2873 0 
104.251 -6.34317 0 
105.245 -8.91865 0 
103.09 -8.16527 0 
101.514 -13.4694 0 
106.835 -8.1234 0 
103.35 -9.14518 0 
103.896 -8.77054 0 
106.039 -9.27717 0 
106.772 -8.56831 0 
105.606 -8.94666 0 
100.796 -12.9612 0 
105.432 -12.6161 0 
103.091 -9.65706 0 
107.556 -11.9471 0 
106.063 -9.08804 0 
104.541 -10.5909 0 
105.745 -8.83187 0 
107.461 -11.6907 0 
103.501 -7.11238 0 
104.402 -10.749 0 
105.555 -8.97084 0 
105.739 -8.87831 0 
106.363 -10.2927 0 
106.121 -12.0095 0 
105.783 -10.3419 0 
105.776 -8.74585 0 
106.632 -10.0737 0 
105.156 -10.6318 0 
105.449 -9.00539 0 
105.74 -8.85319 0 
105.715 -8.8703 0 
103.551 -11.785 0 
101.87 -11.7009 0 
104.565 -7.5414 0 
104.679 -8.78008 0 
104.377 -8.48424 0 
105.45 -9.35356 0 
105.01 -11.6896 0 
104.147 -7.16046 0 
106.568 -8.80718 0 
103.827 -13.3278 0 
105.685 -8.87236 0 
105.524 -8.98398 0 
100.011 -12.7094 0 
102.585 -11.762 0 
105.76 -8.94625 0 
103.627 -11.7126 0 
105.658 -11.0093 0 
105.678 -8.66101 0 
103.748 -8.77964 0 
105.076 -8.93368 0 
105.755 -8.88998 0 
102.965 -9.70013 0 
105.774 -8.84176 0 
106.466 -9.3191 0 
104.946 -10.6843 0 
105.708 -9.08707 0 
105.701 -8.82555 0 
100.983 -10.5784 0 
105.742 -8.8461 0 
105.654 -9.08756 0 
105.568 -7.99748 0 
107.396 -11.869 0 
102.903 -14.2701 0 
100.17 -10.6746 0 
107.398 -11.5631 0 
105.728 -8.88329 0 
106.107 -8.74545 0 
105.207 -8.53214 0 
104.766 -13.212 0 
105.462 -7.857 0 
103.748 -10.438 0 
107.207 -11.9359 0 
105.259 -6.95245 0 
105.737 -9.04819 0 
105.227 -12.8692 0 
107 -11.8059 0 
105.387 -6.89503 0 
105.014 -10.87 0 
105.521 -10.1262 0 
105.708 -8.88047 0 
106.323 -10.4716 0 
105.595 -8.72806 0 
105.74 -8.85014 0 
104.741 -11.1631 0 
103.633 -10.4673 0 
105.667 -8.9185 0 
106.25 -11.0956 0 
103.01 -9.11617 0 
105.75 -9.92334 0 
105.601 -9.05096 0 
105.53 -8.44022 0 
105.86 -10.0206 0 
106.195 -9.95541 0 
105.647 -8.9526 0 
106.315 -9.44105 0 
104.876 -9.16572 0 
105.355 -13.1639 0 
103.961 -9.50365 0 
105.595 -8.90366 0 
106.302 -9.91805 0 
103.274 -12.0741 0 
106.569 -9.54648 0 
105.506 -9.72283 0 
105.746 -9.4898 0 
105.712 -9.40853 0 
106.157 -10.622 0 
102.73 -10.889 0 
106.101 -9.81548 0 
103.935 -11.4632 0 
105.956 -9.8144 0 
104.49 -10.819 0 
104.227 -9.86621 0 
103.691 -10.2058 0 
105.608 -8.41784 0 
105.71 -8.87188 0 
104.979 -9.06146 0 
105.625 -9.19314 0 
106.386 -9.11542 0 
102.979 -8.34655 0 
105.247 -11.4612 0 
106.514 -11.3558 0 
106.684 -9.77999 0 
105.598 -9.92382 0 
101.953 -11.387 0 
102.728 -14.975 0 
105.737 -8.85567 0 
103.191 -11.9493 0 
105.544 -9.03988 0 
105.776 -10.4282 0 
105.155 -9.7576 0 
101.13 -10.9562 0 
105.479 -9.03326 0 
105.913 -10.3231 0 
105.292 -10.9818 0 
105.761 -8.84585 0 
104.919 -9.0011 0 
105.463 -8.9718 0 
105.018 -8.89542 0 
105.099 -8.79199 0 
104.811 -9.10913 0 
105.786 -9.04111 0 
100.454 -10.7522 0 
103.104 -12.244 0 
105.13 -11.6541 0 
102.002 -11.2603 0 
103.083 -8.69031 0 
108.816 -11.2124 0 
105.201 -7.33437 0 
101.015 -10.8292 0 
100.129 -10.528 0 
106.367 -10.1074 0 
105.669 -9.66321 0 
105.637 -8.34247 0 
106.365 -10.8536 0 
106.398 -10.3782 0 
106.401 -10.0007 0 
102.272 -11.0165 0 
107.111 -8.65272 0 
105.926 -10.0726 0 
105.449 -8.94357 0 
105.596 -9.08082 0 
105.563 -9.70262 0 
105.417 -8.92947 0 
106.552 -11.4571 0 
103.941 -6.53979 0 
105.034 -10.763 0 
105.92 -9.42182 0 
105.714 -8.8957 0 
101.076 -11.1155 0 
104.054 -12.8457 0 
102.651 -12.5847 0 
106.088 -10.4817 0 
103.32 -6.90979 0 
104.765 -11.0466 0 
105.96 -9.06715 0 
105.667 -9.42783 0 
106.013 -10.034 0 
106.17 -10.5287 0 
102.705 -11.0023 0 
106.039 -10.9566 0 
105.494 -9.78628 0 
104.603 -13.5433 0 
105.758 -8.8707 0 
105.699 -9.50839 0 
100.666 -11.9884 0 
105.35 -8.67101 0 
106.599 -11.659 0 
104.476 -8.50701 0 
106.349 -12.0552 0 
105.467 -11.482 0 
103.108 -14.0074 0 
101.173 -10.3834 0 
105.432 -9.80784 0 
107.412 -9.93208 0 
103.451 -13.1094 0 
103.34 -9.30561 0 
104.146 -12.9666 0 
105.69 -9.55967 0 
108.285 -11.8633 0 
108.189 -11.989 0 
105.01 -7.40928 0 
105.681 -9.29086 0 
105.732 -9.98892 0 
106.39 -10.9492 0 
105.716 -9.36071 0 
105.734 -8.8897 0 
103.184 -13.0656 0 
104.417 -11.1684 0 
106.122 -10.908 0 
105.443 -8.80774 0 
105.149 -9.82776 0 
105.47 -11.356 0 
105.418 -9.87703 0 
103.245 -10.7232 0 
104.621 -13.1469 0 
105.257 -11.3332 0 
106.16 -11.7177 0 
105.195 -8.47189 0 
105.471 -8.83109 0 
105.214 -9.87407 0 
106.086 -8.8355 0 
105.528 -9.60297 0 
108.806 -11.6613 0 
102.535 -12.2831 0 
105.697 -8.93689 0 
106.109 -8.95848 0 
105.479 -8.39616 0 
105.422 -8.88814 0 
103.331 -13.0112 0 
104.702 -9.22779 0 
105.236 -7.93778 0 
103.818 -13.4315 0 
105.633 -10.3235 0 
103.054 -12.9568 0 
106.779 -10.0364 0 
102.75 -12.898 0 
104.294 -8.58314 0 
102.837 -12.3394 0 
109.06 -9.49375 0 
106.38 -10.5548 0 
108.69 -11.2885 0 
105.738 -8.84848 0 
104.266 -9.69784 0 
105.964 -8.0046 0 
105.462 -9.99561 0 
105.837 -9.82569 0 
105.327 -11.9583 0 
105.407 -8.41964 0 
105.494 -9.51023 0 
105.644 -8.47225 0 
105.678 -9.33428 0 
105.084 -11.9145 0 
105.685 -8.8379 0 
105.009 -12.0045 0 
102.855 -12.1661 0 
105.282 -8.38714 0 
100.166 -12.3678 0 
102.889 -13.0159 0 
103.171 -10.5125 0 
106.976 -8.49397 0 
105.878 -9.93491 0 
105.298 -7.71638 0 
104.774 -9.29218 0 
105.647 -9.22212 0 
105.709 -10.2937 0 
105.407 -8.54044 0 
105.559 -8.93855 0 
104.786 -10.2983 0 
104.605 -10.7787 0 
107.506 -10.4263 0 
104.923 -11.4564 0 
105.679 -8.97915 0 
106.179 -10.0603 0 
105.572 -9.25187 0 
107.05 -8.24705 0 
105.742 -8.84243 0 
108.512 -8.88513 0 
104.812 -7.02486 0 
100.435 -10.9211 0 
108.447 -9.56828 0 
105.788 -10.0454 0 
101.178 -10.1562 0 
105.695 -8.95218 0 
108.087 -11.9774 0 
106.14 -8.88775 0 
105.105 -10.4626 0 
106.085 -10.0917 0 
105.097 -7.91142 0 
101.692 -10.2537 0 
104.236 -12.669 0 
104.697 -10.1411 0 
103.239 -12.7581 0 
105.491 -8.7581 0 
103.467 -10.1632 0 
107.068 -9.11765 0 
105.489 -10.2947 0 
105.742 -8.8722 0 
105.566 -10.2675 0 
106.612 -10.3136 0 
104.333 -8.69955 0 
105.387 -10.9412 0 
103.704 -13.595 0 
104.77 -8.02966 0 
102.636 -10.2156 0 
104.624 -11.2022 0 
105.44 -10.1569 0 
107.38 -9.34127 0 
105.845 -12.0732 0 
105.752 -8.8559 0 
105.538 -8.7118 0 
102.574 -12.1077 0 
105.167 -8.58585 0 
107.609 -12.0666 0 
106.247 -9.72738 0 
99.9941 -10.4791 0 
101.689 -13.7423 0 
100.18 -10.236 0 
104.394 -11.2911 0 
105.276 -10.5153 0 
101.744 -11.5775 0 
108.347 -9.75192 0 
105.335 -9.28761 0 
105.139 -11.5067 0 
105.349 -9.90115 0 
105.647 -8.73568 0 
105.392 -10.0267 0 
100.104 -11.5556 0 
102.682 -12.4014 0 
105.743 -8.88611 0 
105.923 -8.5904 0 
101.665 -11.2793 0 
105.679 -8.95947 0 
105.66 -9.71709 0 
105.794 -9.74357 0 
103.934 -12.8591 0 
106.751 -7.90429 0 
105.578 -8.98225 0 
104.558 -6.92192 0 
105.502 -9.09579 0 
105.493 -8.30314 0 
105.753 -9.43845 0 
105.702 -11.8765 0 
103.342 -10.8015 0 
101.214 -10.2685 0 
104.301 -13.8385 0 
106.068 -10.1805 0 
105.92 -9.65894 0 
105.847 -10.4848 0 
104.581 -7.05118 0 
105.721 -8.84772 0 
105.134 -8.43418 0 
103.565 -10.2493 0 
105.185 -8.70775 0 
106.248 -7.65962 0 
105.379 -8.94802 0 
107.757 -10.1735 0 
104.814 -10.8228 0 
107.624 -8.83441 0 
105.54 -10.436 0 
103.878 -9.90743 0 
103.087 -12.7917 0 
104.001 -9.86707 0 
103.55 -8.94397 0 
105.141 -8.9009 0 
109.155 -9.90035 0 
105.354 -11.5413 0 
105.622 -10.4071 0 
104.889 -10.4964 0 
105.685 -11.3547 0 
105.474 -9.62262 0 
105.803 -11.54 0 
100.596 -10.6663 0 
105.824 -9.8941 0 
104.779 -10.5182 0 
103.72 -10.0746 0 
105.212 -8.64638 0 
105.692 -8.75065 0 
105.695 -8.83586 0 
105.631 -9.39809 0 
105.537 -9.54602 0 
100.082 -10.8062 0 
101.704 -11.1156 0 
103.583 -13.0561 0 
106.065 -11.9038 0 
105.703 -8.90044 0 
105.654 -9.05649 0 
101.819 -10.6702 0 
105.738 -8.84573 0 
103.856 -11.3826 0 
105.888 -9.71555 0 
103.194 -10.3835 0 
105.944 -11.8638 0 
106.136 -11.4619 0 
105.042 -12.1406 0 
105.692 -8.7885 0 
107.148 -8.99458 0 
105.577 -9.02932 0 
105.643 -9.26271 0 
104.251 -11.4591 0 
104.634 -10.6626 0 
106.018 -9.94713 0 
105.53 -10.0435 0 
105.605 -8.69285 0 
104.702 -7.09741 0 
105.689 -8.8648 0 
105.697 -11.7417 0 
105.71 -9.88401 0 
103.124 -8.50892 0 
105.563 -10.8544 0 
103.829 -11.8261 0 
105.68 -9.10363 0 
104.749 -10.6279 0 
107.219 -11.524 0 
105.471 -9.07336 0 
104.904 -10.9024 0 
104.451 -8.71421 0 
103.423 -7.91464 0 
105.579 -11.5473 0 
103.852 -10.0371 0 
104.66 -6.83598 0 
104.277 -11.3342 0 
101.496 -11.3251 0 
105.664 -8.94644 0 
105.037 -11.4152 0 
106.159 -9.74975 0 
101.776 -10.8146 0 
101.786 -11.4067 0 
105.587 -11.9517 0 
100.314 -12.0377 0 
107.767 -8.40807 0 
101.574 -11.6204 0 
105.65 -8.65502 0 
100.893 -11.1489 0 
105.441 -9.52796 0 
104.828 -7.2752 0 
105.623 -9.10228 0 
105.724 -8.84437 0 
103.619 -9.98834 0 
105.412 -9.43778 0 
104.836 -10.7117 0 
108.572 -8.33905 0 
103.799 -11.9438 0 
103.27 -10.5944 0 
103.646 -9.85661 0 
108.99 -11.2761 0 
101.031 -10.4272 0 
106.577 -9.40464 0 
105.915 -11.4612 0 
104.424 -10.637 0 
103.802 -9.67854 0 
108.261 -11.7617 0 
105.065 -9.38582 0 
107.61 -11.0599 0 
105.706 -8.85839 0 
105.691 -11.48 0 
105.231 -8.75821 0 
103.875 -12.1631 0 
103.353 -12.8688 0 
105.401 -8.82013 0 
104.932 -10.39 0 
100.763 -11.0039 0 
102.021 -15.0655 0 
105.691 -10.4635 0 
103.492 -10.0334 0 
107.709 -9.81595 0 
107.451 -9.1654 0 
104.529 -11.1229 0 
105.831 -10.5772 0 
104.55 -11.0034 0 
104.724 -9.13814 0 
104.511 -8.62056 0 
104.345 -11.542 0 
105.728 -9.5934 0 
105.808 -11.671 0 
107.956 -11.487 0 
103.542 -7.81048 0 
105.573 -8.79319 0 
101.63 -10.8414 0 
106.698 -9.6325 0 
100.584 -11.0445 0 
105.42 -8.17934 0 
108.081 -11.5885 0 
101.763 -10.3864 0 
105.581 -11.678 0 
103.643 -12.1122 0 
103.746 -12.2015 0 
105.577 -11.2961 0 
102.834 -9.64751 0 
106.003 -10.5151 0 
106.295 -11.297 0 
107.499 -9.4982 0 
105.277 -8.63739 0 
103.543 -9.76844 0 
104.944 -7.97046 0 
105.751 -8.80162 0 
105.461 -9.68185 0 
103.701 -9.58566 0 
102.574 -12.9619 0 
109.102 -11.1578 0 
107.677 -10.8874 0 
104.336 -12.7727 0 
106.04 -11.0633 0 
106.136 -11.1316 0 
104.965 -12.8887 0 
103.511 -12.1485 0 
101.447 -10.4545 0 
105.211 -11.8868 0 
105.154 -7.83901 0 
105.846 -8.98792 0 
106.81 -9.8739 0 
104.654 -7.44722 0 
103.342 -10.2087 0 
104.64 -6.70244 0 
102.739 -12.0528 0 
105.541 -8.89094 0 
104.716 -9.58243 0 
105.008 -7.90023 0 
105.335 -7.1703 0 
105.677 -10.5484 0 
103.773 -9.81324 0 
104.832 -9.02525 0 
105.833 -11.9387 0 
101.566 -10.5642 0 
106.591 -10.581 0 
105.716 -8.84845 0 
102.466 -12.649 0 
107.831 -9.97873 0 
105.288 -8.7531 0 
105.189 -8.94001 0 
105.668 -11.1174 0 
105.291 -9.84933 0 
103.722 -12.8885 0 
105.989 -10.6048 0 
105.16 -11.252 0 
104.72 -7.22422 0 
103.685 -13.498 0 
104.859 -9.73419 0 
106.499 -10.5142 0 
105.576 -11.1779 0 
105.473 -10.3797 0 
103.233 -8.82803 0 
107.709 -8.68117 0 
105.408 -9.01957 0 
105.931 -10.4542 0 
108.701 -10.1232 0 
104.076 -10.8751 0 
108.241 -9.0649 0 
105.473 -9.92143 0 
101.715 -10.5331 0 
106.204 -9.42708 0 
105.672 -8.79286 0 
104.941 -8.92203 0 
108.868 -8.78427 0 
105.664 -9.15557 0 
101.448 -11.4954 0 
105.149 -8.35615 0 
101.873 -9.8939 0 
105.74 -9.02346 0 
103.39 -9.94752 0 
99.9966 -10.0904 0 
103.568 -9.6322 0 
104.173 -8.56035 0 
103.41 -12.054 0 
105.03 -8.81575 0 
104.882 -10.31 0 
103.414 -9.81425 0 
105.281 -11.0946 0 
105.424 -9.23784 0 
104.661 -8.01071 0 
105.66 -9.47633 0 
105.607 -9.73976 0 
104.835 -7.94705 0 
103.319 -10.3374 0 
105.375 -11.1665 0 
101.523 -10.7282 0 
103.902 -7.09844 0 
106.061 -10.6647 0 
105.669 -8.8531 0 
105.746 -10.6056 0 
105.114 -8.72206 0 
102.785 -11.187 0 
104.441 -7.51087 0 
107.777 -11.5221 0 
104.606 -11.329 0 
104.335 -10.5665 0 
103.966 -10.9154 0 
105.425 -10.2399 0 
105.918 -10.1603 0 
104.765 -9.75123 0 
104.453 -6.55132 0 
103.401 -11.5687 0 
104.658 -9.42069 0 
107.333 -9.00771 0 
104.133 -11.5027 0 
103.54 -10.3788 0 
101.585 -10.9985 0 
105.386 -9.16135 0 
100.839 -12.0558 0 
107.687 -9.47182 0 
100.397 -10.2979 0 
103.24 -10.1245 0 
102.655 -11.2254 0 
104.396 -11.8774 0 
105.044 -10.3791 0 
105.571 -8.53941 0 
104.793 -6.89269 0 
107.726 -11.2007 0 
105.673 -7.97731 0 
103.239 -11.277 0 
107.63 -10.5648 0 
104.582 -8.09135 0 
102.794 -13.7891 0 
105.64 -9.158 0 
106.495 -9.18295 0 
104.322 -11.6681 0 
105.777 -8.87701 0 
105.737 -8.86272 0 
105.338 -8.92186 0 
104.226 -10.6067 0 
103.75 -6.92746 0 
104.94 -8.56275 0 
103.045 -10.5597 0 
104.419 -11.7508 0 
106.069 -9.37619 0 
105.72 -9.64476 0 
104.465 -11.4982 0 
103.264 -9.99307 0 
107.33 -10.4769 0 
101.427 -11.0413 0 
104.598 -8.84914 0 
104.542 -9.18942 0 
106.527 -9.96752 0 
104.54 -11.7075 0 
100.294 -11.8404 0 
104.921 -7.44538 0 
103.934 -9.63919 0 
105.715 -9.26846 0 
104.465 -8.06274 0 
106.203 -8.69737 0 
105.659 -8.9873 0 
105.427 -9.1391 0 
102.886 -11.2676 0 
105.226 -8.33671 0 
102.514 -10.256 0 
104.155 -8.77379 0 
103.113 -11.3156 0 
104.216 -8.3395 0 
105.902 -10.6363 0 
105.467 -7.6426 0 
103.092 -10.3003 0 
103.298 -8.2203 0 
104.106 -11.629 0 
103.115 -10.1699 0 
104.563 -11.581 0 
104.201 -11.7116 0 
104.488 -11.3722 0 
103.608 -10.5932 0 
103.9 -11.5893 0 
105.379 -10.1052 0 
102.39 -11.069 0 
104.206 -10.7195 0 
100.145 -12.1515 0 
105.769 -8.91412 0 
105.693 -8.87629 0 
105.049 -11.2885 0 
105.311 -8.48771 0 
108.539 -10.959 0 
104.413 -7.38097 0 
102.362 -12.3434 0 
105.573 -8.27183 0 
104.027 -9.73353 0 
104.299 -12.9275 0 
103.021 -10.6906 0 
101.307 -10.9227 0 
104.098 -10.76 0 
105.478 -11.0044 0 
104.343 -8.36317 0 
104.347 -12.1316 0 
103.986 -11.673 0 
105.731 -8.85688 0 
106.288 -8.95963 0 
105.817 -9.05338 0 
106.261 -8.87286 0 
105.38 -8.48409 0 
105.334 -9.97662 0 
105.599 -9.80082 0 
101.367 -13.6813 0 
105.734 -8.85009 0 
105.587 -9.00493 0 
105.386 -9.76342 0 
105.743 -8.85454 0 
101.308 -10.1267 0 
107.66 -11.3696 0 
103.832 -11.0731 0 
105.349 -11.6761 0 
104.101 -12.2135 0 
103.016 -11.2318 0 
107.803 -9.63027 0 
104.198 -12.3016 0 
103.644 -8.66073 0 
106.026 -11.5229 0 
103.622 -6.88186 0 
105.743 -8.90715 0 
101.148 -11.4128 0 
107.895 -10.337 0 
103.947 -12.3827 0 
104.322 -12.2604 0 
103.771 -7.06308 0 
105.242 -7.09692 0 
104.629 -9.97832 0 
105.605 -9.27851 0 
102.967 -10.3456 0 
107.905 -11.175 0 
102.943 -10.4761 0 
105.724 -12.1508 0 
105.524 -10.5223 0 
105.499 -9.13567 0 
105.461 -8.11541 0 
104.884 -11.0151 0 
105.354 -8.36611 0 
100.535 -11.2271 0 
108.383 -9.22183 0 
104.275 -11.92 0 
106.164 -9.49166 0 
105.695 -8.81557 0 
103.453 -11.3159 0 
100.843 -11.3181 0 
105.759 -9.16047 0 
104.695 -9.68254 0 
104.011 -10.6846 0 