# vtk DataFile Version 3.0
file is written by INMOST
ASCII
DATASET UNSTRUCTURED_GRID
POINTS 821 double
129.508 217.073 0 
131.967 213.821 0 
143.443 208.13 0 
146.311 196.748 0 
162.295 196.748 0 
167.213 181.301 0 
163.115 171.138 0 
170.902 156.098 0 
171.311 142.683 0 
177.459 134.959 0 
184.016 112.602 0 
199.18 103.252 0 
211.885 106.504 0 
228.689 94.7154 0 
241.803 90.2439 0 
256.967 95.5285 0 
265.164 96.748 0 
275.82 78.4553 0 
277.459 63.4146 0 
285.656 62.6016 0 
284.016 54.878 0 
288.115 36.9919 0 
273.77 28.0488 0 
263.934 26.4228 0 
258.197 18.6992 0 
267.213 15.8537 0 
263.115 5.69106 0 
252.049 5.69106 0 
250.41 2.43902 0 
245.082 1.62602 0 
241.803 -10.1626 0 
236.066 -17.4797 0 
233.607 -28.0488 0 
227.869 -26.4228 0 
227.049 -37.8049 0 
212.705 -37.8049 0 
211.475 -41.0569 0 
202.049 -40.6504 0 
200.41 -49.5935 0 
198.77 -57.7236 0 
206.967 -60.5691 0 
207.377 -64.6341 0 
193.033 -71.5447 0 
192.623 -80.4878 0 
180.328 -76.8293 0 
180.328 -66.2602 0 
170.902 -52.439 0 
180.328 -43.9024 0 
176.639 -36.9919 0 
162.705 -34.9593 0 
149.59 -29.6748 0 
145.082 -22.7642 0 
143.852 -15.0407 0 
131.148 -15.8537 0 
128.689 -28.4553 0 
118.033 -26.8293 0 
108.607 -16.2602 0 
93.8525 -14.2276 0 
93.0328 -2.84553 0 
89.3443 6.50407 0 
89.7541 14.2276 0 
86.4754 14.6341 0 
79.918 28.0488 0 
70.9016 23.9837 0 
68.4426 32.1138 0 
59.4262 32.1138 0 
56.5574 39.0244 0 
52.459 34.5528 0 
44.6721 34.9593 0 
36.0656 22.7642 0 
27.8689 23.1707 0 
18.0328 28.8618 0 
3.27869 34.9593 0 
-8.19672 34.9593 0 
-19.6721 31.7073 0 
-27.0492 40.2439 0 
-22.541 50.813 0 
-22.1311 63.0081 0 
-23.3607 68.2927 0 
-18.4426 70.7317 0 
-22.9508 87.3984 0 
-19.2623 91.8699 0 
-31.9672 110.569 0 
-19.6721 124.797 0 
-21.7213 126.423 0 
-18.8525 136.585 0 
-18.8525 139.024 0 
-9.01639 143.089 0 
-8.19672 157.317 0 
-14.3443 157.317 0 
-11.0656 165.041 0 
-1.22951 166.667 0 
6.55738 157.724 0 
13.1148 156.911 0 
26.6393 152.846 0 
31.5574 159.35 0 
49.1803 164.634 0 
57.7869 168.293 0 
72.1311 177.236 0 
88.9344 172.358 0 
93.8525 184.959 0 
89.3443 195.935 0 
100.82 196.341 0 
114.344 198.78 0 
118.033 213.008 0 
127.869 217.48 0 
109.426 -6.09756 0 
180.738 123.78 0 
220.287 100.61 0 
270.492 87.6016 0 
-25.6148 101.22 0 
56.4959 157.611 0 
185.981 99.5614 0 
136.31 -7.17776 0 
232.817 82.4639 0 
254.146 26.9495 0 
14.6838 40.4689 0 
236.213 -2.44893 0 
169.143 -26.5772 0 
161.064 149.33 0 
172.787 114.984 0 
17.4816 148.606 0 
-14.3399 64.0188 0 
-10.257 71.1129 0 
-17.1867 100.839 0 
102.504 174.506 0 
97.3519 162.113 0 
110.376 164.472 0 
106.066 152.549 0 
93.7986 149.604 0 
102.025 140.943 0 
90.4328 138.442 0 
97.9834 130.519 0 
87.2561 127.786 0 
95.9053 119.516 0 
84.0041 117.253 0 
91.2134 109.566 0 
81.173 107.296 0 
88.1166 99.5443 0 
78.3931 97.7695 0 
72.1172 104.887 0 
69.338 96.2441 0 
63.3322 102.642 0 
60.6549 94.5438 0 
54.808 100.633 0 
97.855 101.463 0 
52.2023 92.4337 0 
46.4411 98.5577 0 
94.917 91.7093 0 
104.984 93.7654 0 
65.6067 87.1747 0 
101.805 84.0964 0 
111.684 85.8629 0 
108.621 76.3791 0 
118.151 78.1203 0 
115.224 69.1401 0 
124.654 70.99 0 
121.8 62.1089 0 
130.798 63.8916 0 
127.992 55.191 0 
136.788 56.8927 0 
43.9341 90.2112 0 
38.1044 96.6353 0 
133.927 48.4499 0 
142.718 50.0912 0 
124.191 46.4596 0 
35.6805 88.6288 0 
48.6819 106.355 0 
29.9767 94.5917 0 
41.4112 82.3763 0 
139.75 41.8832 0 
148.542 43.4342 0 
151.456 51.7646 0 
157.134 44.9676 0 
154.24 36.764 0 
162.679 38.2677 0 
159.833 30.3078 0 
168.072 31.7622 0 
171.006 39.6833 0 
176.418 33.1138 0 
179.218 40.8598 0 
184.672 34.4032 0 
181.789 26.7395 0 
189.756 28.0445 0 
192.825 35.6896 0 
197.952 29.4277 0 
194.67 21.7317 0 
200.898 37.0578 0 
206.027 30.7467 0 
208.986 38.4066 0 
203.746 44.8825 0 
115.8 96.3519 0 
133.686 72.4264 0 
98.7313 74.607 0 
27.7197 86.866 0 
22.1444 92.7417 0 
24.3877 100.376 0 
212.119 46.2462 0 
206.718 52.9832 0 
214.089 32.0551 0 
109.483 132.591 0 
76.7355 37.9703 0 
16.7302 98.5781 0 
19.0029 106.117 0 
112.822 60.2922 0 
77.3583 124.844 0 
211.263 24.5577 0 
219.065 25.7554 0 
216.395 18.5212 0 
165.193 23.9282 0 
157.07 22.4474 0 
162.348 16.203 0 
160.214 53.3301 0 
19.7544 85.0321 0 
25.421 79.1453 0 
86.5585 34.0502 0 
221.682 32.9228 0 
11.475 104.344 0 
13.6898 111.806 0 
21.257 113.641 0 
9.25165 97.0753 0 
223.855 19.6393 0 
17.3066 77.3354 0 
6.23251 109.872 0 
259.853 35.1 0 
242.552 78.424 0 
234.462 72.5428 0 
243.412 68.7278 0 
23.0027 71.3065 0 
14.7505 69.5209 0 
251.171 36.1331 0 
15.8605 119.351 0 
23.8119 121.558 0 
118.598 155.077 0 
83.5623 44.1461 0 
97.9026 4.21888 0 
154.352 14.7573 0 
159.604 8.60181 0 
167.55 9.98926 0 
164.809 2.45565 0 
172.698 3.82811 0 
221.233 12.6071 0 
213.903 11.4343 0 
218.7 5.82209 0 
211.533 4.54011 0 
216.205 -0.9049 0 
209.125 -2.16777 0 
213.681 -7.61875 0 
206.641 -8.95784 0 
201.96 -3.45318 0 
199.474 -10.3798 0 
226.116 75.6235 0 
74.6206 46.7992 0 
235.623 63.8568 0 
35.4229 151.493 0 
255.931 43.4058 0 
149.093 20.9076 0 
-6.65789 64.1119 0 
211.539 -14.7231 0 
161.531 138.428 0 
151.268 143.381 0 
152.281 132.476 0 
80.9505 52.9029 0 
72.3725 55.1041 0 
122.731 166.668 0 
78.1962 61.1768 0 
70.0076 63.0949 0 
64.2453 57.2072 0 
62.0417 64.9869 0 
56.4657 59.2821 0 
194.684 -4.89352 0 
192.167 -11.8361 0 
154.347 60.38 0 
163.482 62.0964 0 
157.324 69.3503 0 
166.894 71.1342 0 
160.494 78.6596 0 
174.37 62.5852 0 
151.248 -17.5942 0 
92.6754 41.8148 0 
95.752 33.631 0 
228.501 13.805 0 
231.209 20.7374 0 
100.887 39.9534 0 
103.203 32.2055 0 
146.409 13.3453 0 
141.224 19.2402 0 
170.149 -3.47587 0 
198.015 51.58 0 
201.099 60.1429 0 
197.132 -17.5369 0 
142.619 137.509 0 
143.031 126.533 0 
98.9804 26.8815 0 
105.299 25.7326 0 
101.715 21.0704 0 
107.133 20.3928 0 
111.201 24.618 0 
112.407 18.4467 0 
117.016 23.3287 0 
118.75 17.5623 0 
115.05 13.1301 0 
121.017 11.5853 0 
116.52 8.13639 0 
111.85 9.16191 0 
113.645 5.00864 0 
117.568 3.86757 0 
114.173 0.80148 0 
110.855 2.8722 0 
115.205 29.2915 0 
122.857 27.6453 0 
138.76 11.7284 0 
82.6188 146.511 0 
269.495 70.0498 0 
220.631 -6.36458 0 
75.571 68.751 0 
176.86 72.9702 0 
9.89317 75.1443 0 
20.4262 63.2032 0 
28.8065 65.1016 0 
30.1127 144.824 0 
38.0577 143.726 0 
12.3319 61.2713 0 
189.613 -18.7407 0 
18.0328 126.985 0 
10.1152 125.042 0 
29.0754 115.493 0 
31.8286 123.421 0 
157.007 1.24 0 
150.838 154.019 0 
117.832 0.0250922 0 
121.956 2.36505 0 
115.582 -3.06696 0 
103.525 16.2544 0 
26.2634 56.8539 0 
34.3664 58.8908 0 
197.175 2.29603 0 
235.843 14.8294 0 
32.0983 50.641 0 
54.2341 66.9457 0 
215.416 54.3301 0 
274.759 54.5535 0 
247.167 44.5304 0 
89.7251 19.6094 0 
184.468 -37.2528 0 
40.4196 52.5168 0 
241.874 37.0016 0 
125.321 17.1584 0 
187.472 -6.22025 0 
66.0632 111.325 0 
87.3601 59.1186 0 
-15.6901 87.1338 0 
-12.792 91.3212 0 
-9.92663 85.4842 0 
-6.46838 91.0824 0 
238.209 45.4977 0 
252.007 53.1252 0 
175.44 11.3362 0 
98.4387 48.9482 0 
133.38 130.533 0 
133.978 120.324 0 
143.459 115.466 0 
134.154 109.698 0 
143.733 104.643 0 
124.888 114.99 0 
-3.12535 85.1392 0 
134.679 98.9574 0 
146.033 93.5364 0 
152.554 101.33 0 
12.1136 132.903 0 
194.115 -24.2529 0 
98.7685 16.6641 0 
106.975 46.485 0 
143.782 6.02264 0 
34.7068 32.8577 0 
100.857 12.2577 0 
238.583 21.7453 0 
243.005 15.8642 0 
191.959 58.5699 0 
194.791 67.6936 0 
204.74 69.0552 0 
198.045 77.0535 0 
-2.78461 43.2591 0 
59.8505 72.7505 0 
36.9338 67.0256 0 
135.267 198.809 0 
139.886 188.771 0 
202.24 -23.2714 0 
220.474 47.1334 0 
36.9221 117.246 0 
39.5518 125.082 0 
206.807 9.99716 0 
4.0009 130.992 0 
6.47892 138.948 0 
2.00833 122.921 0 
193.396 -51.0628 0 
208.071 78.2306 0 
59.0275 51.4056 0 
251.52 73.5967 0 
119.9 -4.20868 0 
116.752 -7.83173 0 
125.822 -2.13912 0 
128.628 3.6174 0 
151.042 76.6167 0 
143.801 26.943 0 
135.862 25.4447 0 
44.1276 148.579 0 
46.4783 141.966 0 
130.592 157.422 0 
119.685 34.3376 0 
127.426 34.0487 0 
133.603 168.391 0 
180.485 5.18706 0 
183.278 12.6525 0 
156.363 179.769 0 
-4.15217 128.206 0 
-5.2205 120.208 0 
96.6269 12.4768 0 
-19.8969 111.658 0 
45.0236 119.19 0 
47.4603 127.126 0 
53.3507 120.944 0 
55.9415 129.234 0 
233.051 8.37091 0 
173.913 47.68 0 
32.724 137.237 0 
265.446 42.7269 0 
-2.19391 150.748 0 
149.922 -10.1267 0 
156.945 -13.3945 0 
158.453 -20.6266 0 
163.836 -16.1036 0 
-10.4473 57.3187 0 
71.1954 160.782 0 
-2.42667 70.7127 0 
52.2518 74.7838 0 
34.598 109.829 0 
105.685 12.0592 0 
102.439 8.04062 0 
135.11 88.3581 0 
113.127 35.5504 0 
233.864 27.3445 0 
218.664 90.1389 0 
24.4867 138.649 0 
181.232 -29.4846 0 
251.352 83.1846 0 
9.81128 152.014 0 
152.801 170.189 0 
60.559 123.753 0 
64.2541 130.922 0 
58.5581 137.497 0 
66.8844 139.933 0 
49.1796 61.0216 0 
50.1459 40.3121 0 
0.229353 90.9129 0 
-3.34754 96.8351 0 
38.9233 45.2787 0 
31.0016 40.8154 0 
224.624 54.1401 0 
219.79 62.5755 0 
161.644 128.377 0 
100.524 -8.02661 0 
3.85386 84.907 0 
106.493 7.57425 0 
104.36 4.69523 0 
189.624 50.0783 0 
58.4608 80.5797 0 
-2.61396 57.7774 0 
202.451 86.2699 0 
191.437 84.7047 0 
257.799 78.2308 0 
233.275 39.3057 0 
125.637 177.899 0 
126.313 146.317 0 
181.588 -54.7666 0 
60.1133 147.242 0 
69.9921 149.485 0 
112.327 -2.24467 0 
112.847 -5.54373 0 
111.595 -10.1836 0 
107.67 4.03726 0 
105.605 1.73576 0 
102.579 2.08175 0 
103.526 -0.919923 0 
106.721 -1.2165 0 
219.955 -31.5734 0 
117.129 -14.4926 0 
-13.7417 81.9662 0 
251.841 64.1334 0 
93.9321 16.1088 0 
117.631 40.915 0 
189.073 -58.8932 0 
91.8891 27.3172 0 
188.374 6.55768 0 
153.852 85.6918 0 
163.848 88.2313 0 
135.947 4.94072 0 
98.4717 9.16016 0 
110.189 13.246 0 
183.208 56.6225 0 
86.3014 158.183 0 
110.629 -3.93916 0 
41.2474 134.339 0 
66.2193 78.2091 0 
73.4455 82.5753 0 
131.378 9.51174 0 
199.252 -31.8553 0 
208 -29.0989 0 
104.692 -3.67775 0 
107.709 185.919 0 
132.606 16.8281 0 
80.4994 135.545 0 
66.5727 49.2515 0 
191.202 14.0664 0 
128.35 22.9794 0 
188.79 -44.0115 0 
192.733 -37.5415 0 
126.681 191.8 0 
68.3621 41.2151 0 
105.787 67.234 0 
[...]
CELL_DATA 1530
SCALARS Vector_from_cell_center_to_Serpukhov double 3
LOOKUP_TABLE default
-26.1985 -215.562 0 
-0.19411 -10.4672 0 
-84.2067 27.2543 0 
53.2315 -157.364 0 
9.68766 4.88843 0 
-37.468 -154.694 0 
113.315 -161.389 0 
44.7682 -175.814 0 
67.501 -54.6257 0 
-46.8542 -194.328 0 
-18.8453 -221.442 0 
5.84698 -0.0326263 0 
-28.4994 7.95612 0 
-156.316 -96.4067 0 
-140.813 -28.7181 0 
-54.9654 18.8898 0 
-92.7014 -97.7964 0 
45.9973 -88.0854 0 
-84.6673 22.8248 0 
-60.8179 -114.121 0 
-147.565 -13.8483 0 
129.731 -44.6532 0 
-97.597 33.422 0 
116.221 -79.4559 0 
-142.324 -15.3334 0 
122.985 -145.807 0 
75.3871 -33.8504 0 
78.6105 -41.24 0 
66.3716 -50.8636 0 
-71.2992 -67.7447 0 
1.9675 -58.3869 0 
34.3942 -38.8085 0 
20.6002 -69.7712 0 
0.400911 -8.71136 0 
6.39115 -56.9953 0 
117.962 -113.966 0 
36.3388 -34.1463 0 
104.805 -153.117 0 
48.8378 -91.247 0 
86.6809 -132.376 0 
-76.458 57.8836 0 
-4.60105 -4.59418 0 
-20.4217 -93.4258 0 
-150.981 -21.5719 0 
135.253 -113.913 0 
-22.1412 -42.1097 0 
67.4984 -146.108 0 
72.0832 -144.532 0 
101.805 -155.799 0 
-10.4698 -5.49138 0 
44.9336 -122.427 0 
-152.62 -17.2359 0 
74.6261 -43.549 0 
-77.1949 70.4689 0 
-17.8331 -146.157 0 
-139.798 -65.0837 0 
-20.1886 -140.896 0 
-144.932 -27.2396 0 
-2.50802 -2.18837 0 
-22.0235 -38.1024 0 
-59.4427 -126.003 0 
-151.808 -99.049 0 
-3.08604 -5.63431 0 
113.944 -113.965 0 
-88.5854 30.5848 0 
-69.1833 -73.1939 0 
-55.7282 -130.467 0 
-60.6087 -93.329 0 
-145.076 -64.6346 0 
-156.856 -90.2429 0 
-153.494 -69.0151 0 
-17.8451 -32.5337 0 
46.7683 -126.569 0 
-47.8466 24.2081 0 
-3.46469 -8.99167 0 
8.63248 -195.171 0 
-128.673 -65.4213 0 
49.1511 -159.584 0 
20.1465 -74.6137 0 
-61.8804 6.41863 0 
-3.27183 -121.705 0 
-22.5582 -12.1208 0 
-152.625 -87.1193 0 
-156.772 -72.9142 0 
-20.2114 -220.222 0 
-74.2367 53.8758 0 
-131.228 -61.3163 0 
-19.3329 -25.0862 0 
-34.7285 -149.191 0 
-56.6646 -118.885 0 
-125.01 -95.2386 0 
95.957 -158.608 0 
-106.008 9.82327 0 
-15.3896 -92.9039 0 
-91.6111 -103.457 0 
-9.91875 -210.776 0 
-43.0985 -97.0507 0 
16.8987 -28.9173 0 
-127.184 -83.9078 0 
-84.5727 -12.1709 0 
70.0692 -41.597 0 
54.2568 -56.1338 0 
-38.1203 0.0344088 0 
112.774 -82.0102 0 
-18.8991 -21.5439 0 
-109.501 21.5686 0 
3.54824 -9.58698 0 
-4.57856 -13.5332 0 
121.431 -84.9221 0 
-34.3223 -160.22 0 
130.738 -73.4417 0 
-9.36213 -121.717 0 
-32.5499 -37.9276 0 
8.07106 -187.892 0 
-42.303 -0.155772 0 
25.6827 -101.468 0 
-2.18574 -10.791 0 
-119.003 -93 0 
-68.1796 44.2718 0 
-2.59547 -7.33993 0 
-15.1661 -30.2537 0 
17.075 -8.64112 0 
-64.9806 8.26323 0 
120.269 -81.3043 0 
-9.52718 -109.266 0 
10.1144 -37.0036 0 
89.4319 -47.952 0 
-95.5063 26.5042 0 
-26.9157 -7.05011 0 
82.0824 -131.188 0 
-83.8535 -79.551 0 
60.6395 -94.8413 0 
123.447 -42.8917 0 
-169.318 -63.7129 0 
-59.063 24.6062 0 
-58.3327 -155.468 0 
92.1786 -51.4054 0 
-29.2336 -34.6541 0 
38.2462 -43.1973 0 
-5.04694 -16.2404 0 
-42.6656 -102.264 0 
-86.0164 -22.9625 0 
16.2177 -25.1812 0 
130.687 -51.0218 0 
58.4551 -54.9283 0 
-27.0367 -3.01061 0 
-97.0809 -107.811 0 
-172.951 -66.3957 0 
-99.9765 26.6912 0 
-152.272 -81.2934 0 
65.2909 -58.1201 0 
-120.209 -57.7984 0 
-156.171 -78.5664 0 
4.99597 -12.8676 0 
-125.273 -7.06117 0 
-43.5037 -199.988 0 
-22.8772 -8.51736 0 
-169.584 -40.9819 0 
-13.1331 -4.76998 0 
124.134 -125.388 0 
-82.528 -8.83769 0 
-95.9508 -20.1149 0 
-66.231 -91.5971 0 
-162.421 -71.019 0 
8.37602 -21.1563 0 
10.7745 -17.3958 0 
-124.584 6.10557 0 
-5.70229 -9.32346 0 
108.612 -154.782 0 
7.42824 -30.6591 0 
-136.947 -60.8866 0 
40.9594 -134.168 0 
90.9787 -41.8186 0 
-24.7429 -192.69 0 
-81.3208 -24.7856 0 
-129.631 -89.8082 0 
-3.12229 -21.0385 0 
-80.8388 -29.445 0 
18.0264 -37.7637 0 
-11.5658 -147.494 0 
-103.09 12.7049 0 
-22.8465 -27.8483 0 
-4.159 -2.47911 0 
18.5636 -170.315 0 
5.30183 -25.3368 0 
-19.993 -189.066 0 
6.43288 -16.8834 0 
-70.3095 18.3815 0 
9.4789 -41.3609 0 
0.94919 -145.091 0 
-101.545 29.5932 0 
-109.674 10.9218 0 
-17.5371 -36.2235 0 
-0.366021 -115.714 0 
27.7216 -135.489 0 
-18.9283 -12.9971 0 
6.93218 -34.3708 0 
-55.209 -149.578 0 
47.1136 -54.2934 0 
20.1748 -99.448 0 
1.28107 -3.87162 0 
-74.07 18.7763 0 
13.6231 2.26903 0 
-27.1379 -26.6019 0 
45.0056 -131.533 0 
-1.85127 -71.653 0 
8.83725 -15.9171 0 
40.2987 -173.31 0 
3.25223 -11.5331 0 
-92.5959 54.6503 0 
-8.10269 -17.0482 0 
120.628 -165.989 0 
-38.5623 -93.7654 0 
-58.9412 -108.02 0 
7.98974 -69.2878 0 
82.6375 -42.8983 0 
8.09001 -24.0939 0 
-80.2751 47.3969 0 
64.2365 -91.4888 0 
17.7643 -42.5962 0 
73.2206 -47.6893 0 
-110.691 -3.79913 0 
56.0516 -94.0022 0 
-94.7336 -24.5301 0 
2.90348 -3.20802 0 
61.5416 -58.4604 0 
30.0323 -98.3823 0 
68.8617 -76.3408 0 
-15.0201 -220.087 0 
-99.033 11.4385 0 
88.1069 -147.456 0 
-53.9181 -161.385 0 
-79.3714 -75.7778 0 
-13.0616 -103.54 0 
20.9726 -34.7974 0 
6.73757 -11.8884 0 
88.1416 -136.474 0 
-58.132 8.57195 0 
32.8068 -85.4061 0 
-117.665 -5.03233 0 
10.6755 -19.8971 0 
-72.2037 -111.395 0 
60.3339 -42.7057 0 
3.30326 -1.45004 0 
102.092 -92.4322 0 
12.9881 -44.564 0 
-93.5227 30.3547 0 
-9.84243 -51.0737 0 
40.9584 -161.389 0 
98.6167 -94.4011 0 
4.7107 -28.4962 0 
46.1444 -58.719 0 
-0.616315 -22.1003 0 
-68.4457 -63.9958 0 
-0.450999 -77.0153 0 
10.609 -25.8533 0 
2.15111 -8.33255 0 
97.2524 -154.889 0 
-115.418 -55.3714 0 
11.526 -1.47435 0 
-5.95554 -142.919 0 
23.3635 -140.022 0 
2.08818 -151.743 0 
58.3382 -159.984 0 
-112.513 22.6903 0 
-141.885 -19.3622 0 
5.04419 -115.881 0 
101.294 -45.9699 0 
-128.307 6.08712 0 
5.24498 -8.93514 0 
14.0076 -149.094 0 
-110.047 -7.86135 0 
14.7541 -198.509 0 
4.55426 -15.3222 0 
-97.8693 -95.2421 0 
-123.497 -4.35163 0 
-114.291 27.068 0 
-5.97593 -22.4773 0 
-95.9331 14.288 0 
36.1868 -48.0924 0 
89.412 -143.742 0 
-108.346 17.6477 0 
-114.338 -2.42385 0 
6.0706 -19.6213 0 
119.448 -126.297 0 
96.0054 -101.587 0 
10.2739 -5.22053 0 
1.99275 -67.693 0 
-126.848 -17.093 0 
-13.5332 -0.58452 0 
13.2032 -24.1994 0 
-119.733 -15.8635 0 
-20.918 -18.995 0 
127.731 -72.0171 0 
-31.1996 -42.9076 0 
-120.437 -11.7488 0 
1.14921 -5.4404 0 
-82.7356 -85.2214 0 
-73.3946 -77.5366 0 
-8.47272 -64.9057 0 
-3.42691 -109.514 0 
24.9092 -146.264 0 
63.4655 -143.229 0 
123.281 -109.515 0 
-114.285 -95.5584 0 
125.341 -96.2059 0 
24.282 -171.62 0 
51.0335 -52.9315 0 
-130.166 -19.5908 0 
20.4762 -150.95 0 
8.79662 -153.796 0 
32.1985 -109.415 0 
-0.0216318 -2.96407 0 
29.0054 -177.971 0 
-97.1601 18.6504 0 
-130.716 -79.3291 0 
-86.6088 -18.8407 0 
33.2938 -114.974 0 
-25.9355 -14.8245 0 
-6.48453 -11.7684 0 
41.0024 -88.7506 0 
67.9861 -71.7243 0 
30.6031 -124.946 0 
-12.5071 -48.3202 0 
31.1201 -49.0694 0 
38.3304 -116.317 0 
-53.2066 -104.655 0 
91.7078 -100.142 0 
21.8885 -84.6814 0 
16.3341 -82.9396 0 
-4.57218 -80.6441 0 
-68.3489 -29.7478 0 
40.5511 -64.5663 0 
26.8653 -107.634 0 
-135.809 -90.0484 0 
26.5534 -129.392 0 
-26.2492 -44.7212 0 
-10.4157 14.6999 0 
23.9627 -117.469 0 
118.23 -140.974 0 
-47.23 -160.692 0 
-20.2664 -51.3026 0 
-73.4241 43.6346 0 
17.5355 -138.347 0 
-76.5452 -31.1143 0 
-0.289463 -5.86371 0 
-48.3389 -106.204 0 
39.5532 -121.899 0 
-19.2773 -56.1311 0 
36.512 -160.841 0 
20.3711 -127.616 0 
24.6682 -55.3421 0 
106.972 -76.7815 0 
1.62433 -19.9711 0 
30.2892 -82.1859 0 
36.1434 -105.731 0 
-25.4528 -49.7771 0 
-121.705 -82.9743 0 
-76.3391 48.6315 0 
41.6961 -59.9518 0 
33.445 -57.6996 0 
-30.0701 -13.6615 0 
111.994 -43.8235 0 
-97.389 -32.28 0 
-82.5816 -16.0943 0 
10.3542 -160.853 0 
-115.794 -17.2755 0 
-6.50069 -135.899 0 
-32.7049 -20.8689 0 
-59.4645 -98.5099 0 
37.8901 -144.225 0 
-12.1234 9.15394 0 
-124.219 -10.6678 0 
49.5134 -62.0625 0 
-123.039 -18.4326 0 
72.3738 -107.165 0 
-111.788 4.3189 0 
-111.068 -23.0201 0 
-114.746 1.58619 0 
17.0905 -66.2351 0 
-98.336 -27.7837 0 
-106.207 -91.0261 0 
29.7151 -54.047 0 
5.04652 -78.8376 0 
-43.0931 -8.52433 0 
-106.148 -29.0423 0 
-25.9853 5.33516 0 
38.2376 -56.4825 0 
12.6126 -142.732 0 
29.3315 -119.096 0 
-139.597 -13.0831 0 
18.939 -93.6909 0 
-115.104 -21.448 0 
-110.345 -27.4029 0 
94.3834 -92.5043 0 
-2.51736 -12.8875 0 
96.9406 -106.097 0 
109.309 -159.396 0 
-11.1331 -73.5106 0 
17.2478 -20.0685 0 
-112.423 8.20357 0 
-134.016 -18.0298 0 
96.6618 -84.7156 0 
-67.7356 -34.5037 0 
2.05651 -88.2104 0 
-37.7025 -36.4023 0 
6.37397 -84.4584 0 
-10.3682 -198.185 0 
-28.1039 -22.0298 0 
1.80188 -199.778 0 
-113.287 -10.5369 0 
43.9947 -67.8606 0 
11.9728 -86.423 0 
90.6998 -95.6267 0 
0.909847 -14.0561 0 
-14.3267 -57.9889 0 
-41.182 -39.676 0 
10.5383 -29.2591 0 
41.1638 -107.355 0 
-14.5473 -165.82 0 
28.3556 -39.454 0 
-9.9167 -78.8477 0 
-120.475 -3.49102 0 
-128.356 1.07688 0 
-2.93674 -17.9436 0 
-112.527 -14.6146 0 
-128.406 -74.4734 0 
1.26009 -12.0345 0 
-145.631 -38.8251 0 
-2.2537 -163.463 0 
11.6466 -65.6156 0 
18.2891 -22.7462 0 
16.9423 -162.731 0 
-44.6647 -3.94467 0 
-110.474 -90.2759 0 
1.09745 -184.811 0 
102.035 -111.794 0 
101.029 -107.529 0 
126.582 -128.305 0 
-115.907 -69.5867 0 
-108.519 -16.0521 0 
-7.18887 -69.9446 0 
81.7491 -75.9375 0 
-3.39212 -86.2183 0 
-83.1276 40.4512 0 
99.1304 -76.8608 0 
13.8136 -31.3414 0 
-93.7378 21.9776 0 
93.3748 -88.0115 0 
-74.8145 -9.71032 0 
-15.7414 -159.036 0 
-114.884 -65.1627 0 
14.3293 -183.372 0 
-108.102 2.97317 0 
9.64324 -75.0701 0 
44.2263 -98.7518 0 
-139.048 -84.4993 0 
-7.80883 -168.17 0 
82.8126 -97.4974 0 
74.839 -99.3828 0 
-13.5296 -63.2053 0 
-93.516 -16.9829 0 
-107.413 -1.13482 0 
44.9845 -103.908 0 
-164.176 -65.8535 0 
-147.69 -59.9174 0 
-19.5491 -170.258 0 
-3.43626 -156.455 0 
-49.458 -128.74 0 
-29.1812 -99.7148 0 
-29.3722 -52.9056 0 
72.2791 -55.5764 0 
86.9374 -154.913 0 
73.7981 -60.1137 0 
-33.5574 -16.463 0 
-92.9521 -33.9033 0 
23.4023 -60.3329 0 
-128.36 -46.6992 0 
95.4428 -80.0978 0 
39.5745 -51.8528 0 
82.8776 -80.6188 0 
-8.84613 -20.1902 0 
85.2128 -34.0265 0 
66.5997 -101.232 0 
53.9654 -90.0509 0 
-106.053 -9.24999 0 
13.8857 -35.3741 0 
-43.8789 -47.8195 0 
-117.258 -9.0832 0 
6.01554 -173.128 0 
-144.131 -84.4349 0 
-34.2437 -51.2338 0 
-38.6848 -10.1185 0 
-49.4912 -41.2107 0 
93.6902 -109.111 0 
110.225 -125.527 0 
-107.751 -20.2851 0 
-54.1019 -39.5435 0 
88.3388 -103.33 0 
-46.6543 -11.8164 0 
-32.0555 -105.143 0 
23.2219 -89.732 0 
-23.4763 -59.6088 0 
-35.2747 -46.2917 0 
-103.577 -2.53375 0 
-84.6999 -32.4988 0 
-75.9794 -35.8266 0 
4.82832 -165.809 0 
27.1408 -44.8198 0 
78.7012 -155.818 0 
-18.4018 -15.9088 0 
117.818 -46.7423 0 
5.79795 2.30937 0 
-137.311 -45.3193 0 
-71.5336 -37.5164 0 
76.0574 -69.7702 0 
-90.001 -26.0214 0 
15.3319 -77.2074 0 
108.16 -73.5026 0 
-28.0959 -110.53 0 
1.22812 -17.9 0 
-46.0742 -133.558 0 
-69.7541 -123.22 0 
-30.8694 -29.9735 0 
-85.0446 -54.4391 0 
-105.38 -33.5536 0 
-48.497 -23.9001 0 
73.5426 -111.562 0 
-10.1855 -154.378 0 
77.1055 -74.5105 0 
-48.5914 -46.0973 0 
111.881 -129.876 0 
-136.402 -79.6804 0 
-149.885 -35.5883 0 
-39.8699 -132.944 0 
-63.1631 -36.1779 0 
35.9008 -65.8895 0 
73.2976 -140.024 0 
45.8616 -40.0666 0 
-17.4372 -66.4947 0 
-28.3848 -57.9088 0 
-54.9397 -34.7637 0 
83.9233 -102.001 0 
69.0843 -93.1697 0 
49.8279 -105.371 0 
-72.7126 -28.0482 0 
-45.7693 -16.3222 0 
-64.823 -0.990514 0 
80.5373 -88.3999 0 
-41.3709 -17.9033 0 
59.4492 -107.946 0 
-146.225 -44.3105 0 
-52.1106 -26.9571 0 
-64.0285 -5.4811 0 
-31.0224 -116.033 0 
98.9604 -114.772 0 
-40.1045 -44.5853 0 
125.781 -110.82 0 
58.2758 -103.306 0 
-37.8476 -14.9918 0 
86.2201 -94.3108 0 
-67.4738 -8.36874 0 
-22.4013 -156.807 0 
0.208429 -177.662 0 
119.844 -72.5121 0 
106.163 -112.985 0 
48.5087 -66.5896 0 
-101.034 -35.2174 0 
-24.8218 -18.787 0 
-83.7732 -59.5069 0 
78.3006 -96.1264 0 
-74.6195 -14.23 0 
15.7113 -132.038 0 
-40.5251 -22.4343 0 
-84.0846 -37.1515 0 
54.9385 -169.61 0 
-76.9591 -87.2154 0 
-103.629 -21.8353 0 
-27.5736 -161.354 0 
-92.1997 -38.5083 0 
-0.82068 -27.2501 0 
-87.3264 34.8237 0 
-139.498 -74.9168 0 
115.339 -170.57 0 
-105.286 -13.3631 0 
-51.2724 -31.6587 0 
-30.7297 -126.872 0 
-89.1665 -30.8983 0 
-64.5156 -26.6863 0 
-32.2474 -207.327 0 
78.5169 -61.5594 0 
-49.3416 -19.2849 0 
13.2443 -92.1238 0 
53.7059 -60.8393 0 
-137.474 -40.3597 0 
-60.1605 -28.3802 0 
70.1866 -97.9227 0 
-16.0424 -7.37867 0 
-122.425 -22.5548 0 
-36.1492 -23.9286 0 
-27.7707 -121.26 0 
-70.6765 -42.2231 0 
-88.0992 46.6957 0 
-59.7922 -7.03353 0 
-132.991 -48.4408 0 
-22.6771 -99.3042 0 
-54.5614 -13.1131 0 
-58.9259 -11.5219 0 
65.9553 -79.6576 0 
-27.3699 -131.894 0 
-35.061 -3.0797 0 
-149.333 -30.1214 0 
79.3699 -83.8152 0 
-67.8057 -116.536 0 
-52.172 -5.86911 0 
10.4439 -60.2395 0 
19.0519 -121.542 0 
-129.717 -23.5772 0 
8.85756 -95.9546 0 
-134.02 -37.8754 0 
42.8829 -43.1004 0 
-66.7812 -12.8814 0 
7.32608 -51.2264 0 
-100.433 -18.994 0 
79.6142 -66.3796 0 
-19.3547 -104.408 0 
2.46739 -6.5813 0 
-21.8991 -110.206 0 
-37.2333 -116.354 0 
89.386 -107.788 0 
-51.0469 -10.1967 0 
-56.5527 -4.29715 0 
-78.1918 -17.1897 0 
64.1634 -109.164 0 
-105.072 5.75933 0 
115.873 -74.7434 0 
112.892 -152.033 0 
-59.4213 -33.1161 0 
-40.2649 -111.642 0 
-44.0788 -25.4684 0 
-12.5566 -115.478 0 
22.5919 -111.566 0 
-22.4333 -64.756 0 
-141.997 -47.454 0 
-71.7923 6.30259 0 
61.9004 -99.8318 0 
-102.861 -6.58671 0 
-46.1225 11.1075 0 
-101.45 19.811 0 
94.7036 -113.52 0 
0.402373 -24.4826 0 
-18.6355 -115.55 0 
-35.9504 -191.36 0 
-53.7411 -17.6956 0 
-150.984 -46.5085 0 
-21.5805 -121.102 0 
-69.4206 -104.635 0 
-36.9292 -127.274 0 
-16.3245 -71.7611 0 
-38.0137 -105.934 0 
-70.3079 -15.8228 0 
-62.4059 -40.9507 0 
15.7967 -103.67 0 
1.54863 -29.6787 0 
81.559 -141.491 0 
75.7948 -148.027 0 
53.5378 -101.968 0 
-37.3013 12.3688 0 
-50.3186 10.6106 0 
32.2531 -62.4922 0 
-79.6579 -38.81 0 
-40.1811 -121.983 0 
3.84557 -20.9739 0 
6.2627 -140.782 0 
3.26866 -94.0058 0 
-113.12 -101.252 0 
-42.9511 -52.8197 0 
88.5989 -86.6018 0 
-46.7048 -111.88 0 
-62.4696 -14.4821 0 
101.895 -140.378 0 
80.3184 -146.334 0 
63.9042 -69.723 0 
125.58 -140.805 0 
20.7599 -51.6461 0 
75.9368 -103.933 0 
-105.097 -70.8239 0 
21.8275 -46.1013 0 
0.0185879 -62.9893 0 
98.3175 -72.2365 0 
-43.2788 7.60755 0 
-127.325 -13.4429 0 
-72.1003 -83.3039 0 
97.8534 -143.525 0 
-88.4027 15.5895 0 
-31.062 -200.874 0 
-38.9145 8.15628 0 
-46.8604 -80.9731 0 
-43.2196 -30.118 0 
123.773 -74.7187 0 
-61.6668 -19.0576 0 
42.2554 -112.382 0 
-45.8561 -38.0236 0 
-17.8975 -177.083 0 
10.1741 -101.743 0 
-78.8375 -61.1878 0 
-42.7862 -77.2147 0 
-129.356 -56.5823 0 
-30.2503 -137.623 0 
75.4185 -51.6759 0 
-22.951 4.00831 0 
-106.577 -55.3341 0 
-56.517 -25.3262 0 
34.8346 -70.4385 0 
6.92409 -125.651 0 
-87.7989 -40.1559 0 
83.9927 -48.0675 0 
39.422 -97.3328 0 
53.9808 -77.5909 0 
75.8944 -120.287 0 
99.4438 -54.6141 0 
-95.8775 -41.5013 0 
-102.749 -26.2098 0 
74.8951 -152.779 0 
-54.3641 23.1756 0 
-36.5509 -138.27 0 
90.4419 -150.775 0 
58.7463 -76.331 0 
-57.3028 -20.6799 0 
47.5743 -147.655 0 
-100.274 -39.8337 0 
-10.324 -55.4431 0 
44.0021 -50.8966 0 
55.7807 -85.7475 0 
-121.261 19.4049 0 
-57.8263 -42.6686 0 
47.2743 -113.59 0 
-43.8878 -71.8025 0 
38.0528 -92.7766 0 
92.4905 -121.03 0 
87.9468 -64.3916 0 
115.345 -138.037 0 
50.7175 -74.3253 0 
-98.0735 7.13324 0 
52.5719 -82.1356 0 
-58.8224 -71.3695 0 
102.652 -127.874 0 
-65.2361 -22.01 0 
112.622 -99.041 0 
115.824 -100.913 0 
56.1331 -68.514 0 
-25.9155 -168.022 0 
-147.911 -69.9596 0 
-142.275 -53.118 0 
-77.5234 -21.7592 0 
-69.5657 -20.3759 0 
-118.429 -24.1581 0 
-86.0156 2.93893 0 
8.68972 -120.915 0 
-38.7966 -31.6165 0 
-133.462 -53.2876 0 
-1.39649 -98.091 0 
-46.7997 -33.2514 0 
-55.5025 -57.7125 0 
-101.194 4.33566 0 
66.6731 -134.947 0 
118.972 -99.0747 0 
-82.015 1.55239 0 
79.338 -117.187 0 
21.8533 -157.53 0 
-71.3537 28.4789 0 
-49.059 -139.191 0 
85.1279 -89.7787 0 
-66.1212 -43.9832 0 
84.7115 -122.995 0 
-38.1457 -54.5276 0 
-35.2799 -28.4612 0 
89.1164 -124.281 0 
-52.804 -183.5 0 
-48.5277 -149.81 0 
90.1911 -128.729 0 
-88.5133 -4.08067 0 
51.8457 -69.8358 0 
51.026 -110.026 0 
-89.2798 0.144622 0 
84.2609 -67.8171 0 
-124.213 -49.8813 0 
92.5906 -65.8641 0 
59.7704 -71.7436 0 
91.443 -116.619 0 
47.916 -83.2773 0 
-106.376 -101.475 0 
-100.08 -72.9838 0 
-108.853 -36.342 0 
-91.8041 12.8424 0 
-40.232 -88.1255 0 
55.9094 -111.264 0 
-104.116 -106.931 0 
-147.184 -79.7401 0 
32.5745 -136.779 0 
99.2306 -98.9681 0 
49.8417 -138.648 0 
-107.1 -50.4082 0 
-27.2983 -210.558 0 
-32.3148 -94.6542 0 
-15.9873 -26.7581 0 
-124.738 -54.9176 0 
-138.061 -55.8301 0 
91.0729 -78.8185 0 
-66.6287 -85.1461 0 
81.1876 -126.255 0 
-49.9978 -117.444 0 
85.3478 -72.6346 0 
-48.0001 -179.796 0 
-94.0517 5.6855 0 
70.2235 -154.03 0 
-73.2089 -23.3525 0 
13.1628 -175.756 0 
-78.7859 4.41752 0 
76.8176 -124.817 0 
-45.7032 -86.4203 0 
-79.4995 8.59102 0 
104.051 -132.416 0 
-4.04439 -196.224 0 
-101.321 -14.7548 0 
-65.5443 -127.923 0 
67.6892 -105.925 0 
-110.745 -57.9654 0 
73.3254 -128.014 0 
-154.501 -54.528 0 
77.1175 -91.5611 0 
-20.2865 -75.2002 0 
-94.1923 -80.8773 0 
68.9271 -126.603 0 
129.998 -108.587 0 
-32.3606 -181.914 0 
100.053 -119.112 0 
-76.1331 11.4539 0 
-71.0523 33.2848 0 
66.5384 -150.855 0 
-60.0687 -55.8291 0 
-46.8418 -56.1184 0 
-93.2653 1.49939 0 
0.372755 -126.608 0 
-155.541 -63.5092 0 
-83.5446 9.94036 0 
70.5534 -63.528 0 
-84.1194 -104.849 0 
82.4146 -57.6831 0 
-79.2376 33.5044 0 
-86.8316 7.15339 0 
-100.389 0.15056 0 
-6.43611 -5.35076 0 
17.0312 -109.622 0 
-30.7314 -9.49056 0 
33.3518 -142.762 0 
-63.282 -74.9941 0 
9.2681 -14.0167 0 
-59.5 -65.999 0 
-16.7911 0.441315 0 
-24.8354 -35.2344 0 
93.59 -70.7627 0 
65.3991 -113.588 0 
65.4144 -129.897 0 
119.694 -110.499 0 
-98.8572 -49.276 0 
106.392 -161.721 0 
-42.3153 -182.363 0 
-45.6003 -144.193 0 
-75.1024 35.6247 0 
72.5536 -90.0645 0 
87.5161 -82.0266 0 
71.3785 -85.4328 0 
38.3273 -73.5638 0 
60.8147 -128.517 0 
-46.5057 -122.834 0 
-110.517 -63.1128 0 
-89.1095 20.3623 0 
83.785 -118.458 0 
-35.0558 -7.41886 0 
115.81 -105.149 0 
46.2228 -75.5276 0 
-52.1444 -79.1456 0 
-87.0009 42.3119 0 
-91.8639 -6.76949 0 
-28.2083 -178.431 0 
-90.7839 -71.7281 0 
87.1425 -115.332 0 
86.0989 -110.911 0 
-36.4309 4.62317 0 
-39.2964 -143.886 0 
-44.9633 -155.007 0 
-52.3934 -49.34 0 
-17.983 -135.928 0 
87.1978 -59.0778 0 
-78.0909 -7.77019 0 
78.2197 -160.66 0 
-160.574 -62.2429 0 
48.1065 -95.9017 0 
108.807 -133.47 0 
-87.5982 -62.8618 0 
-12.8013 -203.707 0 
-51.5715 -54.3608 0 
-145.198 -75.041 0 
96.3567 -62.519 0 
-154.38 -38.0659 0 
112.548 -95.1424 0 
57.1754 -131.865 0 
-138.28 -9.159 0 
-119.903 -62.4423 0 
52.8091 -130.741 0 
-32.2461 -61.3047 0 
36.5913 -132.142 0 
24.963 -35.0412 0 
56.9886 -64.0446 0 
61.8993 -152.594 0 
-18.0284 -44.1135 0 
-57.0176 -47.5785 0 
73.639 -77.7212 0 
107.141 -141.521 0 
46.194 -142.215 0 
-6.53392 -175.049 0 
-96.4822 -1.23796 0 
-147.481 -88.762 0 
-112.96 -34.5095 0 
-37.1355 -59.5953 0 
96.8433 -122.272 0 
-39.9502 -68.2315 0 
27.2573 -63.8303 0 
12.8641 -16.1645 0 
-65.2861 -48.8386 0 
-48.9579 -70.0398 0 
-45.9128 -61.2558 0 
-95.117 -46.2132 0 
42.837 -72.3091 0 
-75.4449 26.3678 0 
74.7749 -82.3446 0 
-103.27 -47.4992 0 
-77.1621 -66.4063 0 
-1.41211 -3.47397 0 
12.0925 -49.6697 0 
-49.972 -90.2918 0 
-84.1938 14.0793 0 
-81.4582 -51.284 0 
-56.9193 12.5289 0 
-101.992 -57.2841 0 
-49.9212 -64.6998 0 
95.1475 -151.029 0 
-23.8206 -89.431 0 
7.63967 -1.19694 0 
-9.894 -14.9064 0 
90.0331 -74.1078 0 
-99.0381 -7.94599 0 
-103.927 -42.7688 0 
94.7567 -129.89 0 
54.5409 -140.037 0 
49.1747 -134.067 0 
-89.7657 -77.365 0 
-74.289 -45.2235 0 
109.155 -89.0382 0 
80.8352 -52.337 0 
-53.1403 -73.6246 0 
-159.981 -45.0047 0 
-6.63147 -25.8768 0 
-5.10929 -61.9104 0 
122.546 -90.959 0 
-93.4002 -55.9128 0 
-95.8472 -5.28156 0 
-63.1459 -103.676 0 
-110.821 14.7361 0 
109.107 -93.0839 0 
119.155 -95.3935 0 
-68.4872 5.02084 0 
-57.6654 -0.0682288 0 
71.3416 -119.066 0 
112.967 -121.851 0 
78.2341 -112.782 0 
96.0057 -134.407 0 
-87.8846 -88.7736 0 
-86.5234 -68.2331 0 
-159.019 -35.7155 0 